 Gaussian 16, Revision A.03,
 Gaussian 16:  ES64L-G16RevA.03 25-Dec-2016

 -----------------------------------------------------------------
 #p opt m062x def2svp em(gd3) scrf(pcm,solvent=diphenylether) freq
 -----------------------------------------------------------------

 ---------------------------
 ACC generated by CoordMagic
 ---------------------------
 Symbolic Z-matrix:
 Charge =  0 Multiplicity = 1

 SCF Done:  E(RM062X) =  -1840.90626900     A.U. after   15 cycles
 SCF Done:  E(RM062X) =  -1841.05503338     A.U. after   12 cycles
 SCF Done:  E(RM062X) =  -1841.18515941     A.U. after   13 cycles
 SCF Done:  E(RM062X) =  -1841.20633661     A.U. after   12 cycles
 SCF Done:  E(RM062X) =  -1841.21118052     A.U. after   12 cycles
 SCF Done:  E(RM062X) =  -1841.21165491     A.U. after   10 cycles
 SCF Done:  E(RM062X) =  -1841.21175528     A.U. after   10 cycles
 SCF Done:  E(RM062X) =  -1841.21176599     A.U. after    9 cycles
 SCF Done:  E(RM062X) =  -1841.21176740     A.U. after    8 cycles
 SCF Done:  E(RM062X) =  -1841.21176764     A.U. after    7 cycles
 Optimization completed.
    -- Stationary point found.
 Normal termination of Gaussian 16 at Fri Jul  9 15:16:33 2021.

 -------------------------------------------------------------------
 #P Geom=AllCheck Guess=TCheck SCRF=Check GenChk RM062X/def2SVP Freq
 -------------------------------------------------------------------

 Structure from the checkpoint file:  "ACC.chk"
 ---------------------------
 ACC generated by CoordMagic
 ---------------------------
 Charge =  0 Multiplicity = 1

                         Standard orientation:
 ---------------------------------------------------------------------
 Center     Atomic      Atomic             Coordinates (Angstroms)
 Number     Number       Type             X           Y           Z
 ---------------------------------------------------------------------
      1          6           0        1.475122   -0.335548    0.000174
      2          6           0        0.710864   -1.481964    0.000334
      3          6           0       -0.710868   -1.481963    0.000288
      4          6           0       -1.475124   -0.335546    0.000103
      5          6           0       -0.727274    0.898846   -0.000035
      6          6           0        0.727274    0.898845   -0.000001
      7          7           0       -1.233300    2.126671   -0.000275
      8         16           0        0.000003    3.176499   -0.000186
      9          7           0        1.233305    2.126668   -0.000221
     10          6           0        2.938784   -0.362412    0.000163
     11          6           0       -2.938787   -0.362410    0.000047
     12          6           0        3.835400    0.684660    0.000760
     13          6           0        5.193887    0.256692    0.000588
     14          6           0        5.316895   -1.105217   -0.000158
     15         16           0        3.787242   -1.883401   -0.000663
     16         16           0       -3.787241   -1.883398    0.000089
     17          6           0       -5.316894   -1.105219    0.000003
     18          6           0       -5.193889    0.256691   -0.000057
     19          6           0       -3.835404    0.684661   -0.000035
     20          1           0        1.206336   -2.454722    0.000523
     21          1           0       -1.206341   -2.454720    0.000415
     22          1           0        3.517644    1.723704    0.001302
     23          1           0        6.045124    0.935973    0.000996
     24          1           0        6.227982   -1.699589   -0.000463
     25          1           0       -6.227980   -1.699592   -0.000000
     26          1           0       -6.045128    0.935971   -0.000117
     27          1           0       -3.517650    1.723705   -0.000077
 ---------------------------------------------------------------------

 SCF Done:  E(RM062X) =  -1841.21176764     A.U. after    1 cycles

 The electronic state is 1-A.
 Alpha  occ. eigenvalues --  -90.00001 -89.93188 -89.93188 -14.80387 -14.80381
 Alpha  occ. eigenvalues --  -10.62018 -10.61973 -10.59533 -10.59524 -10.59465
 Alpha  occ. eigenvalues --  -10.59461 -10.58549 -10.58549 -10.58040 -10.57991
 Alpha  occ. eigenvalues --  -10.56188 -10.56187 -10.56084 -10.56083  -8.36217
 Alpha  occ. eigenvalues --   -8.29729  -8.29729  -6.28479  -6.28095  -6.27948
 Alpha  occ. eigenvalues --   -6.21976  -6.21975  -6.21737  -6.21737  -6.21515
 Alpha  occ. eigenvalues --   -6.21515  -1.14263  -1.00403  -0.99373  -0.98306
 Alpha  occ. eigenvalues --   -0.96004  -0.88562  -0.86363  -0.82716  -0.82487
 Alpha  occ. eigenvalues --   -0.82285  -0.78697  -0.73772  -0.70754  -0.69821
 Alpha  occ. eigenvalues --   -0.64381  -0.64304  -0.62205  -0.61679  -0.58973
 Alpha  occ. eigenvalues --   -0.58763  -0.58259  -0.56401  -0.54483  -0.52172
 Alpha  occ. eigenvalues --   -0.48681  -0.47626  -0.47394  -0.47166  -0.46995
 Alpha  occ. eigenvalues --   -0.46568  -0.45684  -0.45349  -0.44019  -0.44019
 Alpha  occ. eigenvalues --   -0.42817  -0.41391  -0.41109  -0.40210  -0.38455
 Alpha  occ. eigenvalues --   -0.37249  -0.34546  -0.32550  -0.31070  -0.31002
 Alpha  occ. eigenvalues --   -0.30198  -0.25043
 Alpha virt. eigenvalues --   -0.07408  -0.00753   0.01056   0.04238   0.06017
 Alpha virt. eigenvalues --    0.06913   0.07368   0.08191   0.09674   0.12393
 Alpha virt. eigenvalues --    0.12511   0.12602   0.12649   0.13651   0.13917

 Mulliken charges:
               1
     1  C    0.177797
     2  C   -0.110880
     3  C   -0.110880
     4  C    0.177796
     5  C    0.003720
     6  C    0.003719
     7  N   -0.347678
     8  S    0.551564
     9  N   -0.347679
    10  C   -0.170802
    11  C   -0.170802
    12  C   -0.012744
    13  C   -0.011599
    14  C   -0.094235
    15  S    0.089412
    16  S    0.089413
    17  C   -0.094235
    18  C   -0.011600
    19  C   -0.012744
    20  H    0.039773
    21  H    0.039774
    22  H    0.040647
    23  H    0.040554
    24  H    0.080255
    25  H    0.080255
    26  H    0.040554
    27  H    0.040646
 Sum of Mulliken charges =  -0.00000

 Dipole moment (field-independent basis, Debye):
    X=             -0.0000    Y=             -0.1101    Z=              0.0009  Tot=              0.1101
 Quadrupole moment (field-independent basis, Debye-Ang):
   XX=           -109.3251   YY=           -117.2788   ZZ=           -136.3084
   XY=              0.0001   XZ=              0.0016   YZ=              0.0028

  Exact polarizability: 472.435   0.000 291.428   0.009   0.009  98.619
 Approx polarizability: 439.792   0.000 362.031   0.011   0.013 130.060

                      1                      2                      3
                      A                      A                      A
 Frequencies --      2.0588                 4.0055                40.4856
 Red. masses --      6.7038                 6.6838                 5.4629
 Frc consts  --      0.0000                 0.0001                 0.0053
 IR Inten    --      0.0001                 0.5365                 0.4863

                      4                      5                      6
                      A                      A                      A
 Frequencies --     96.9739               110.6129               164.8633
 Red. masses --      7.6312                 7.0627                 7.7245
 Frc consts  --      0.0423                 0.0509                 0.1237
 IR Inten    --      0.5417                 0.0000                 0.0148

                      7                      8                      9
                      A                      A                      A
 Frequencies --    176.3606               209.1508               221.8625
 Red. masses --      4.9685                 7.5237                10.0196
 Frc consts  --      0.0910                 0.1939                 0.2906
 IR Inten    --      5.1597                 0.0000                 0.4724

                     10                     11                     12
                      A                      A                      A
 Frequencies --    237.5545               253.0532               299.6992
 Red. masses --     11.7028                 7.0601                 8.0580
 Frc consts  --      0.3891                 0.2664                 0.4264
 IR Inten    --      0.4319                 0.3176                 1.5678

                     13                     14                     15
                      A                      A                      A
 Frequencies --    355.8269               415.6930               478.9963
 Red. masses --      4.4959                 8.5522                 6.4669
 Frc consts  --      0.3354                 0.8707                 0.8742
 IR Inten    --      0.0000                 0.2336                 0.3102

                     16                     17                     18
                      A                      A                      A
 Frequencies --    519.2066               528.4089               534.6699
 Red. masses --      4.2554                 8.2452                 6.8003
 Frc consts  --      0.6759                 1.3564                 1.1454
 IR Inten    --      0.0002                28.2811                16.1097

                     19                     20                     21
                      A                      A                      A
 Frequencies --    547.1442               581.5443               593.4669
 Red. masses --     10.7385                 3.4047                 3.5074
 Frc consts  --      1.8941                 0.6784                 0.7278
 IR Inten    --      0.0754                 0.0000                 5.9157

                     22                     23                     24
                      A                      A                      A
 Frequencies --    630.1210               639.3570               652.3230
 Red. masses --      4.2732                 6.9462                10.6211
 Frc consts  --      0.9997                 1.6730                 2.6628
 IR Inten    --      0.0000                10.3290                 0.0287

                     25                     26                     27
                      A                      A                      A
 Frequencies --    676.4311               701.5040               731.4918
 Red. masses --      8.0478                 4.0503                 1.1680
 Frc consts  --      2.1696                 1.1744                 0.3682
 IR Inten    --      0.4603                 1.7277                 0.0001

                     28                     29                     30
                      A                      A                      A
 Frequencies --    731.8757               750.0260               766.8236
 Red. masses --      1.1722                 8.8611                 7.2888
 Frc consts  --      0.3699                 2.9369                 2.5252
 IR Inten    --    160.0450                 9.9789                 1.7771

                     31                     32                     33
                      A                      A                      A
 Frequencies --    768.2768               847.5617               860.1946
 Red. masses --      6.3760                 5.4882                 6.7672
 Frc consts  --      2.2174                 2.3229                 2.9502
 IR Inten    --      0.9353                 0.0000               116.9149

                     34                     35                     36
                      A                      A                      A
 Frequencies --    868.6796               874.0315               886.7097
 Red. masses --      4.2622                 1.3215                 5.1913
 Frc consts  --      1.8950                 0.5948                 2.4049
 IR Inten    --     60.9025                62.6182                 0.8684

                     37                     38                     39
                      A                      A                      A
 Frequencies --    896.0286               902.7957               903.2903
 Red. masses --      1.4190                 1.4695                 8.0488
 Frc consts  --      0.6713                 0.7057                 3.8693
 IR Inten    --      0.0000                 0.0053                 8.5254

                     40                     41                     42
                      A                      A                      A
 Frequencies --    927.5849               950.0431               965.9520
 Red. masses --     10.0723                10.7254                 1.3748
 Frc consts  --      5.1061                 5.7036                 0.7558
 IR Inten    --      8.0012                42.2080                 0.0000

                     43                     44                     45
                      A                      A                      A
 Frequencies --    967.1417               988.4193              1063.4071
 Red. masses --      1.3862                 1.5261                 1.3241
 Frc consts  --      0.7639                 0.8784                 0.8822
 IR Inten    --      1.3883                 0.0000                64.5169

                     46                     47                     48
                      A                      A                      A
 Frequencies --   1066.9928              1084.1510              1084.6650
 Red. masses --      1.3179                 1.2619                 1.2451
 Frc consts  --      0.8840                 0.8739                 0.8631
 IR Inten    --      0.2770                23.3461                 6.2549

                     49                     50                     51
                      A                      A                      A
 Frequencies --   1141.0232              1142.6664              1235.7799
 Red. masses --      4.7617                 1.8719                 1.6992
 Frc consts  --      3.6526                 1.4400                 1.5289
 IR Inten    --      1.8744                 2.4531                11.3022

                     52                     53                     54
                      A                      A                      A
 Frequencies --   1237.2253              1266.7967              1308.7499
 Red. masses --      1.5379                 4.4130                 1.5845
 Frc consts  --      1.3870                 4.1725                 1.5990
 IR Inten    --     62.7420                 1.2283                 3.7920

                     55                     56                     57
                      A                      A                      A
 Frequencies --   1335.1090              1385.4043              1395.6894
 Red. masses --      2.0171                 5.2230                 2.6146
 Frc consts  --      2.1184                 5.9064                 3.0008
 IR Inten    --      1.4197                 7.6117                 5.2719

                     58                     59                     60
                      A                      A                      A
 Frequencies --   1407.5793              1429.4112              1452.5986
 Red. masses --      4.8495                 6.8984                 7.7627
 Frc consts  --      5.6610                 8.3045                 9.6506
 IR Inten    --      5.6474                21.5626                 0.2090

                     61                     62                     63
                      A                      A                      A
 Frequencies --   1517.5032              1518.3512              1586.7149
 Red. masses --      7.3276                 7.1534                 5.5440
 Frc consts  --      9.9419                 9.7165                 8.2238
 IR Inten    --     39.0078                67.9172               103.3255

                     64                     65                     66
                      A                      A                      A
 Frequencies --   1608.2752              1616.1099              1634.1383
 Red. masses --      6.0013                 7.5371                 7.5317
 Frc consts  --      9.1457                11.5983                11.8500
 IR Inten    --      4.2236                31.3058                15.6797

                     67                     68                     69
                      A                      A                      A
 Frequencies --   1688.4788              3215.2517              3227.0925
 Red. masses --      7.3106                 1.0899                 1.0948
 Frc consts  --     12.2799                 6.6387                 6.7173
 IR Inten    --     52.9005                34.0493                 0.4873

                     70                     71                     72
                      A                      A                      A
 Frequencies --   3251.0718              3251.1394              3283.7203
 Red. masses --      1.0920                 1.0921                 1.0994
 Frc consts  --      6.8006                 6.8011                 6.9848
 IR Inten    --     17.8248                 0.0224                10.3124

                     73                     74                     75
                      A                      A                      A
 Frequencies --   3283.7350              3289.9890              3290.0363
 Red. masses --      1.0994                 1.0975                 1.0975
 Frc consts  --      6.9849                 6.9991                 6.9991
 IR Inten    --      6.8448                 0.2666                10.0842

 - Thermochemistry -
 -------------------
 Temperature   298.150 Kelvin.  Pressure   1.00000 Atm.
 Atom     1 has atomic number  6 and mass  12.00000

 Molecular mass:   299.98496 amu.
 Principal axes and moments of inertia in atomic units:
                           1         2         3
     Eigenvalues --  2934.99906********************
           X            1.00000   0.00000   0.00000
           Y           -0.00000   1.00000   0.00000
           Z           -0.00000  -0.00000   1.00000
 This molecule is an asymmetric top.
 Rotational symmetry number  1.
 Warning -- assumption of classical behavior for rotation
           may cause significant error
 Rotational temperatures (Kelvin)      0.02951     0.00782     0.00618
 Rotational constants (GHZ):           0.61490     0.16288     0.12877
 Zero-point vibrational energy     493801.5 (Joules/Mol)
                                  118.02138 (Kcal/Mol)
 Warning -- explicit consideration of  21 degrees of freedom as
           vibrations may cause significant error
 Vibrational temperatures:      2.96     5.76    58.25   139.52   159.15
          (Kelvin)            237.20   253.74   300.92   319.21   341.79
                              364.09   431.20   511.96   598.09   689.17
                              747.02   760.26   769.27   787.22   836.71
                              853.87   906.60   919.89   938.55   973.23
                             1009.31  1052.45  1053.01  1079.12  1103.29
                             1105.38  1219.45  1237.63  1249.84  1257.54
                             1275.78  1289.19  1298.92  1299.63  1334.59
                             1366.90  1389.79  1391.50  1422.11  1530.01
                             1535.16  1559.85  1560.59  1641.68  1644.04
                             1778.01  1780.09  1822.64  1883.00  1920.92
                             1993.29  2008.09  2025.19  2056.60  2089.97
                             2183.35  2184.57  2282.93  2313.95  2325.22
                             2351.16  2429.34  4626.03  4643.07  4677.57
                             4677.66  4724.54  4724.56  4733.56  4733.63

 Zero-point correction=                           0.188079 (Hartree/Particle)
 Thermal correction to Energy=                    0.202902
 Thermal correction to Enthalpy=                  0.203846
 Thermal correction to Gibbs Free Energy=         0.139326
 Sum of electronic and zero-point Energies=          -1841.023689
 Sum of electronic and thermal Energies=             -1841.008866
 Sum of electronic and thermal Enthalpies=           -1841.007921
 Sum of electronic and thermal Free Energies=        -1841.072441

                     E (Thermal)             CV                S
                      KCal/Mol        Cal/Mol-Kelvin    Cal/Mol-Kelvin
 Total                  127.323             57.515            135.793
 Electronic               0.000              0.000              0.000
 Translational            0.889              2.981             42.993
 Rotational               0.889              2.981             34.476
 Vibrational            125.545             51.553             58.324
 Vibration     1          0.592              1.987             11.152
 Vibration     2          0.593              1.987              9.829
 Vibration     3          0.594              1.981              5.235
 Vibration     4          0.603              1.951              3.514
 Vibration     5          0.606              1.941              3.258
 Vibration     6          0.623              1.886              2.493
 Vibration     7          0.628              1.871              2.367
 Vibration     8          0.642              1.827              2.051
 Vibration     9          0.648              1.808              1.944
 Vibration    10          0.656              1.783              1.821
 Vibration    11          0.664              1.758              1.709
 Vibration    12          0.692              1.674              1.419
 Vibration    13          0.731              1.563              1.140
 Vibration    14          0.779              1.436              0.907
 Vibration    15          0.835              1.297              0.713
 Vibration    16          0.874              1.207              0.612
 Vibration    17          0.883              1.187              0.591
 Vibration    18          0.890              1.173              0.577
 Vibration    19          0.902              1.146              0.550
 Vibration    20          0.938              1.071              0.483
 Vibration    21          0.951              1.046              0.461

 Optimization completed.
    -- Stationary point found.
 Normal termination of Gaussian 16 at Fri Jul  9 15:19:39 2021.
