 Gaussian 16, Revision A.03,
 Gaussian 16:  ES64L-G16RevA.03 25-Dec-2016

 -------------------------------------------------------------------
 #p opt b3lyp def2svp em(gd3bj) scrf(pcm,solvent=diphenylether) freq
 -------------------------------------------------------------------

 ---
 PPI
 ---
 Symbolic Z-matrix:
 Charge =  0 Multiplicity = 1

 SCF Done:  E(RB3LYP) =  -2548.04305301     A.U. after   14 cycles
 Optimization completed.
    -- Stationary point found.
 Normal termination of Gaussian 16 at Sat Jul 10 11:00:12 2021.

 -------------------------------------------------------------------
 #P Geom=AllCheck Guess=TCheck SCRF=Check GenChk RB3LYP/def2SVP Freq
 -------------------------------------------------------------------

 Structure from the checkpoint file:  "PPI.chk"
 ---
 PPI
 ---
 Charge =  0 Multiplicity = 1

                         Standard orientation:
 ---------------------------------------------------------------------
 Center     Atomic      Atomic             Coordinates (Angstroms)
 Number     Number       Type             X           Y           Z
 ---------------------------------------------------------------------
      1          6           0       -3.115540    0.414387   -0.000407
      2          6           0       -3.374792   -0.992851    0.000289
      3          6           0       -4.658327   -1.538723    0.000453
      4          6           0       -5.723855   -0.612160    0.000055
      5          6           0       -5.465955    0.794213   -0.000586
      6          6           0       -4.180296    1.340759   -0.000937
      7          6           0       -1.708662    0.696810   -0.000429
      8          6           0       -0.913907   -0.424369    0.000184
      9         16           0       -1.871161   -1.910052    0.000917
     10          6           0       -7.138876   -0.893139    0.000226
     11          6           0       -7.907367    0.231762   -0.000241
     12         16           0       -6.973067    1.707729   -0.000869
     13          6           0       -3.919016    2.822147   -0.001462
     14          6           0       -4.917639   -3.020866    0.001270
     15          6           0        0.528206   -0.503994    0.000320
     16          6           0        1.331810   -1.632880    0.000288
     17          6           0        2.717115   -1.342202    0.000379
     18          6           0        2.999749    0.015268    0.000527
     19         16           0        1.507988    0.942479    0.000505
     20          6           0        4.290384    0.690788    0.000710
     21          6           0        5.538284   -0.039895   -0.000158
     22          6           0        6.811964    0.672891    0.000014
     23          6           0        6.851549    2.096062    0.001051
     24          6           0        5.650321    2.763074    0.001866
     25          6           0        4.403366    2.075429    0.001707
     26          7           0        5.690649   -1.366461   -0.001191
     27         16           0        7.301961   -1.679402   -0.001954
     28          7           0        7.872539   -0.142215   -0.000893
     29          1           0       -1.298783    1.707095   -0.000882
     30          1           0       -7.556653   -1.899940    0.000725
     31          1           0       -8.995127    0.291965   -0.000200
     32          1           0       -3.333866    3.122528   -0.886054
     33          1           0       -4.851982    3.402563   -0.005538
     34          1           0       -3.340473    3.124300    0.886914
     35          1           0       -3.983888   -3.600321   -0.001071
     36          1           0       -5.496520   -3.322839    0.889361
     37          1           0       -5.501062   -3.323027   -0.883745
     38          1           0        0.927624   -2.646018    0.000153
     39          1           0        3.504056   -2.092326    0.000316
     40          1           0        7.811027    2.613548    0.001174
     41          1           0        5.636259    3.855171    0.002682
     42          1           0        3.494442    2.680927    0.002450
 ---------------------------------------------------------------------

 SCF Done:  E(RB3LYP) =  -2548.04305301     A.U. after    1 cycles

 The electronic state is 1-A.
 Alpha  occ. eigenvalues --  -88.93833 -88.87987 -88.87173 -88.86994 -14.36371
 Alpha  occ. eigenvalues --  -14.36212 -10.24953 -10.24598 -10.23440 -10.23412
 Alpha  occ. eigenvalues --  -10.22981 -10.22831 -10.22032 -10.21880 -10.21852
 Alpha  occ. eigenvalues --  -10.21173 -10.21140 -10.20798 -10.20780 -10.20711
 Alpha  occ. eigenvalues --  -10.20277 -10.20189 -10.20116 -10.20083 -10.19829
 Alpha  occ. eigenvalues --  -10.19689 -10.19427 -10.19408  -8.03009  -7.97510
 Alpha  occ. eigenvalues --   -7.96676  -7.96525  -5.99942  -5.99354  -5.99128
 Alpha  occ. eigenvalues --   -5.94346  -5.93962  -5.93586  -5.93539  -5.93370
 Alpha  occ. eigenvalues --   -5.93163  -5.92994  -5.92689  -5.92574  -1.02090
 Alpha  occ. eigenvalues --   -0.90396  -0.89512  -0.88716  -0.87216  -0.85774
 Alpha  occ. eigenvalues --   -0.81465  -0.80461  -0.77945  -0.76519  -0.74890
 Alpha  occ. eigenvalues --   -0.73675  -0.73271  -0.71804  -0.71108  -0.69613
 Alpha  occ. eigenvalues --   -0.65493  -0.65130  -0.63073  -0.61902  -0.60248
 Alpha  occ. eigenvalues --   -0.57472  -0.56726  -0.55181  -0.54814  -0.54117
 Alpha  occ. eigenvalues --   -0.52656  -0.51533  -0.49649  -0.48834  -0.48045
 Alpha  occ. eigenvalues --   -0.46726  -0.46412  -0.46139  -0.44150  -0.43504
 Alpha  occ. eigenvalues --   -0.43248  -0.42218  -0.41846  -0.41681  -0.41487
 Alpha  occ. eigenvalues --   -0.41248  -0.40917  -0.39626  -0.39183  -0.38915
 Alpha  occ. eigenvalues --   -0.38890  -0.38251  -0.38205  -0.38190  -0.37758
 Alpha  occ. eigenvalues --   -0.36272  -0.35902  -0.35331  -0.34546  -0.34520
 Alpha  occ. eigenvalues --   -0.33006  -0.32626  -0.31389  -0.30411  -0.29119
 Alpha  occ. eigenvalues --   -0.27928  -0.27448  -0.26599  -0.25777  -0.24280
 Alpha  occ. eigenvalues --   -0.21372  -0.19553
 Alpha virt. eigenvalues --   -0.10193  -0.06872  -0.02979  -0.00695  -0.00274
 Alpha virt. eigenvalues --    0.00171   0.01459   0.01631   0.02022   0.03212
 Alpha virt. eigenvalues --    0.03701   0.05841   0.06606   0.06744   0.07548

 Mulliken charges:
               1
     1  C    0.100027
     2  C   -0.122966
     3  C   -0.116312
     4  C    0.069765
     5  C   -0.144031
     6  C   -0.124221
     7  C   -0.093955
     8  C   -0.003070
     9  S    0.078685
    10  C   -0.015412
    11  C   -0.057812
    12  S    0.072715
    13  C    0.085752
    14  C    0.081822
    15  C   -0.033135
    16  C   -0.013608
    17  C    0.008997
    18  C   -0.114085
    19  S    0.087882
    20  C    0.172859
    21  C    0.002126
    22  C    0.066191
    23  C   -0.019118
    24  C    0.032527
    25  C   -0.077764
    26  N   -0.311172
    27  S    0.492215
    28  N   -0.301330
    29  H   -0.007847
    30  H   -0.005558
    31  H    0.040563
    32  H    0.033593
    33  H    0.018238
    34  H    0.033686
    35  H    0.017664
    36  H    0.033723
    37  H    0.033656
    38  H    0.000679
    39  H   -0.000376
    40  H   -0.010850
    41  H    0.007084
    42  H    0.002174
 Sum of Mulliken charges =  -0.00000

 Dipole moment (field-independent basis, Debye):
    X=             -1.3058    Y=              0.7349    Z=              0.0018  Tot=              1.4984
 Quadrupole moment (field-independent basis, Debye-Ang):
   XX=           -175.6132   YY=           -169.0776   ZZ=           -195.8138
   XY=              9.3898   XZ=             -0.0022   YZ=              0.0024

  Exact polarizability: 954.353  -5.677 447.033   0.008   0.023 154.438
 Approx polarizability:1094.987 -27.857 710.926   0.013   0.053 231.330

                      1                      2                      3
                      A                      A                      A
 Frequencies --      3.9904                16.9126                34.6102
 Red. masses --      7.3943                 5.5007                 6.7475
 Frc consts  --      0.0001                 0.0009                 0.0048
 IR Inten    --      0.0383                 0.0068                 1.1125

                      4                      5                      6
                      A                      A                      A
 Frequencies --     35.7180                38.0866                52.8809
 Red. masses --      8.5471                 1.0507                 1.1244
 Frc consts  --      0.0064                 0.0009                 0.0019
 IR Inten    --      0.1057                 0.2223                 0.1227

                      7                      8                      9
                      A                      A                      A
 Frequencies --     61.7523                99.1436               107.5291
 Red. masses --      4.7813                 5.3264                10.2977
 Frc consts  --      0.0107                 0.0308                 0.0702
 IR Inten    --      0.2294                 0.4461                 0.0727

                     10                     11                     12
                      A                      A                      A
 Frequencies --    122.9602               139.5155               144.6420
 Red. masses --      8.0411                 4.1386                 7.0043
 Frc consts  --      0.0716                 0.0475                 0.0863
 IR Inten    --      0.2913                 1.0850                 0.4607

                     13                     14                     15
                      A                      A                      A
 Frequencies --    164.9987               182.5979               209.0915
 Red. masses --      4.1287                 5.3291                 6.7605
 Frc consts  --      0.0662                 0.1047                 0.1741
 IR Inten    --      1.5348                 3.4793                 0.2248

                     16                     17                     18
                      A                      A                      A
 Frequencies --    224.1501               249.5049               251.2048
 Red. masses --      8.1270                 5.4946                 3.5928
 Frc consts  --      0.2406                 0.2015                 0.1336
 IR Inten    --      1.2038                 0.0886                 1.0344

                     19                     20                     21
                      A                      A                      A
 Frequencies --    268.0168               292.3514               302.8330
 Red. masses --      5.5954                 3.7509                 5.7182
 Frc consts  --      0.2368                 0.1889                 0.3090
 IR Inten    --      0.7390                 1.5671                 3.8238

                     22                     23                     24
                      A                      A                      A
 Frequencies --    342.1636               360.9347               372.3949
 Red. masses --      8.5952                 6.2934                12.9353
 Frc consts  --      0.5929                 0.4830                 1.0569
 IR Inten    --      4.8823                 0.3914                 3.3544

                     25                     26                     27
                      A                      A                      A
 Frequencies --    384.7751               393.5500               454.2854
 Red. masses --      4.6989                 8.1606                 7.1083
 Frc consts  --      0.4099                 0.7447                 0.8643
 IR Inten    --      0.1538                13.7599                18.1536

                     28                     29                     30
                      A                      A                      A
 Frequencies --    466.4052               471.0010               500.1763
 Red. masses --      5.5595                 6.0013                 5.1383
 Frc consts  --      0.7125                 0.7844                 0.7574
 IR Inten    --      1.4891                 0.3307                 7.8031

                     31                     32                     33
                      A                      A                      A
 Frequencies --    514.5706               525.2876               532.5394
 Red. masses --      6.3778                 4.9032                 9.8794
 Frc consts  --      0.9950                 0.7971                 1.6508
 IR Inten    --      0.5477                 9.7890                 1.5405

                     34                     35                     36
                      A                      A                      A
 Frequencies --    566.3971               570.1360               577.2655
 Red. masses --      3.6949                 3.9545                 6.1747
 Frc consts  --      0.6984                 0.7574                 1.2123
 IR Inten    --      1.1132                 0.8902                 3.6439

                     37                     38                     39
                      A                      A                      A
 Frequencies --    596.5719               606.8388               611.4910
 Red. masses --      4.5292                 7.0222                 3.3643
 Frc consts  --      0.9497                 1.5236                 0.7412
 IR Inten    --      0.1796                 1.6903                 0.0002

                     40                     41                     42
                      A                      A                      A
 Frequencies --    634.9354               663.0792               666.5463
 Red. masses --      5.0270                 8.8795                 4.3764
 Frc consts  --      1.1940                 2.3002                 1.1456
 IR Inten    --      0.9394                 6.2531                 0.3184

                     43                     44                     45
                      A                      A                      A
 Frequencies --    671.4643               703.1596               718.1417
 Red. masses --      2.4363                 7.6963                 7.9944
 Frc consts  --      0.6472                 2.2420                 2.4291
 IR Inten    --     21.3555                 6.5903                 3.7892

                     46                     47                     48
                      A                      A                      A
 Frequencies --    731.8366               731.8744               750.4970
 Red. masses --      6.3347                 1.7721                 6.7080
 Frc consts  --      1.9990                 0.5593                 2.2261
 IR Inten    --      3.0346                22.0767                 3.3667

                     49                     50                     51
                      A                      A                      A
 Frequencies --    771.8142               776.8095               800.6044
 Red. masses --      3.7847                 1.4124                 3.2454
 Frc consts  --      1.3283                 0.5021                 1.2256
 IR Inten    --      3.0826                43.8251                20.2448

                     52                     53                     54
                      A                      A                      A
 Frequencies --    818.5638               833.8336               834.2529
 Red. masses --      4.9903                 9.4348                 1.3961
 Frc consts  --      1.9701                 3.8649                 0.5725
 IR Inten    --     84.3581                43.7471                51.9294

                     55                     56                     57
                      A                      A                      A
 Frequencies --    843.2866               862.2677               863.6880
 Red. masses --     11.0044                 1.8348                 8.1931
 Frc consts  --      4.6107                 0.8038                 3.6009
 IR Inten    --     42.7950                 5.6954                26.1198

                     58                     59                     60
                      A                      A                      A
 Frequencies --    870.3898               887.1079               920.9929
 Red. masses --      3.7970                 9.2214                 1.3223
 Frc consts  --      1.6948                 4.2757                 0.6608
 IR Inten    --      5.5601                12.4608                 0.6576

                     61                     62                     63
                      A                      A                      A
 Frequencies --    924.1284               928.1631               947.7797
 Red. masses --      7.3008                 1.4550                 3.1357
 Frc consts  --      3.6736                 0.7385                 1.6596
 IR Inten    --     16.0590                 1.1392                22.0117

                     64                     65                     66
                      A                      A                      A
 Frequencies --    950.5992               970.2970              1017.3483
 Red. masses --      1.4814                 4.8806                 1.3694
 Frc consts  --      0.7887                 2.7073                 0.8351
 IR Inten    --      0.4978                 0.0704                 0.2576

                     67                     68                     69
                      A                      A                      A
 Frequencies --   1040.3913              1040.4184              1044.6308
 Red. masses --      1.5527                 1.5302                 2.0253
 Frc consts  --      0.9902                 0.9759                 1.3021
 IR Inten    --      0.1158                 2.2699                 7.9931

                     70                     71                     72
                      A                      A                      A
 Frequencies --   1054.4065              1068.7518              1076.6961
 Red. masses --      1.6096                 1.4356                 1.8826
 Frc consts  --      1.0544                 0.9661                 1.2859
 IR Inten    --      3.6813                39.1315                 6.0104

                     73                     74                     75
                      A                      A                      A
 Frequencies --   1099.4891              1130.6998              1140.6346
 Red. masses --      1.1547                 2.9147                 1.8054
 Frc consts  --      0.8224                 2.1956                 1.3839
 IR Inten    --      8.5314                 4.3428                17.2920

                     76                     77                     78
                      A                      A                      A
 Frequencies --   1188.4424              1195.7071              1219.4953
 Red. masses --      2.0254                 1.8984                 1.6463
 Frc consts  --      1.6854                 1.5991                 1.4425
 IR Inten    --      2.4786                31.5619                 0.7376

                     79                     80                     81
                      A                      A                      A
 Frequencies --   1253.8427              1264.5948              1286.1963
 Red. masses --      2.3606                 4.5905                 2.4135
 Frc consts  --      2.1866                 4.3252                 2.3524
 IR Inten    --      1.5424                50.9842                29.1864

                     82                     83                     84
                      A                      A                      A
 Frequencies --   1312.1838              1344.3164              1351.0650
 Red. masses --      2.4554                 2.6257                 4.4756
 Frc consts  --      2.4909                 2.7957                 4.8134
 IR Inten    --     47.2929                13.7701                16.8206

                     85                     86                     87
                      A                      A                      A
 Frequencies --   1360.7212              1365.6018              1377.7624
 Red. masses --      5.3293                 4.9280                 3.1786
 Frc consts  --      5.8138                 5.4146                 3.5549
 IR Inten    --      4.7441                 2.6697                 1.2305

                     88                     89                     90
                      A                      A                      A
 Frequencies --   1390.4979              1396.4956              1399.2504
 Red. masses --      6.2193                 1.2545                 1.4410
 Frc consts  --      7.0849                 1.4414                 1.6623
 IR Inten    --      9.9368                 3.0726                 3.7959

                     91                     92                     93
                      A                      A                      A
 Frequencies --   1425.1482              1448.4663              1449.2090
 Red. masses --      2.6718                 1.0399                 1.0400
 Frc consts  --      3.1972                 1.2855                 1.2869
 IR Inten    --     39.6121                 2.1979                14.2368

                     94                     95                     96
                      A                      A                      A
 Frequencies --   1450.2842              1457.7817              1475.0652
 Red. masses --      4.3392                 1.1038                 1.4141
 Frc consts  --      5.3773                 1.3820                 1.8128
 IR Inten    --     19.3247                 1.4255                49.4328

                     97                     98                     99
                      A                      A                      A
 Frequencies --   1485.7769              1509.0016              1536.4127
 Red. masses --      7.8155                 7.7828                 6.0628
 Frc consts  --     10.1652                10.4415                 8.4322
 IR Inten    --     88.7888                83.4819                10.7822

                    100                    101                    102
                      A                      A                      A
 Frequencies --   1544.2574              1569.7003              1579.2241
 Red. masses --      5.8598                 6.0142                 6.2987
 Frc consts  --      8.2333                 8.7309                 9.2553
 IR Inten    --    129.2157                 6.5175               106.8013

                    103                    104                    105
                      A                      A                      A
 Frequencies --   1603.6050              1609.6815              1629.4213
 Red. masses --      7.7643                 8.0092                 8.3923
 Frc consts  --     11.7638                12.2270                13.1280
 IR Inten    --      0.2136                 0.5396                 0.2044

                    106                    107                    108
                      A                      A                      A
 Frequencies --   1650.1326              3029.7768              3030.6225
 Red. masses --      6.2964                 1.0387                 1.0384
 Frc consts  --     10.1014                 5.6176                 5.6195
 IR Inten    --     20.8350                36.0321                23.7797

                    109                    110                    111
                      A                      A                      A
 Frequencies --   3096.6467              3098.2290              3131.7135
 Red. masses --      1.1023                 1.1024                 1.1024
 Frc consts  --      6.2281                 6.2348                 6.3701
 IR Inten    --     10.1579                11.7095                12.8610

                    112                    113                    114
                      A                      A                      A
 Frequencies --   3133.1417              3185.6444              3198.8188
 Red. masses --      1.1022                 1.0888                 1.0926
 Frc consts  --      6.3747                 6.5103                 6.5870
 IR Inten    --     14.8864                26.5665                 5.5543

                    115                    116                    117
                      A                      A                      A
 Frequencies --   3209.7423              3212.9451              3217.8888
 Red. masses --      1.0941                 1.0940                 1.0905
 Frc consts  --      6.6409                 6.6536                 6.6528
 IR Inten    --     11.6873                11.7416                11.3994

                    118                    119                    120
                      A                      A                      A
 Frequencies --   3222.2323              3246.7162              3253.9439
 Red. masses --      1.0968                 1.1003                 1.0960
 Frc consts  --      6.7094                 6.8339                 6.8369
 IR Inten    --      3.9145                 2.0798                 5.1621

 - Thermochemistry -
 -------------------
 Temperature   298.150 Kelvin.  Pressure   1.00000 Atm.
 Atom     1 has atomic number  6 and mass  12.00000

 Molecular mass:   434.00399 amu.
 Principal axes and moments of inertia in atomic units:
                           1         2         3
     Eigenvalues --  3694.63146********************
           X            0.99998   0.00634   0.00000
           Y           -0.00634   0.99998  -0.00001
           Z           -0.00000   0.00001   1.00000
 This molecule is an asymmetric top.
 Rotational symmetry number  1.
 Warning -- assumption of classical behavior for rotation
           may cause significant error
 Rotational temperatures (Kelvin)      0.02344     0.00219     0.00201
 Rotational constants (GHZ):           0.48848     0.04572     0.04183
 Zero-point vibrational energy     789752.2 (Joules/Mol)
                                  188.75531 (Kcal/Mol)
 Warning -- explicit consideration of  39 degrees of freedom as
           vibrations may cause significant error
 Vibrational temperatures:      5.74    24.33    49.80    51.39    54.80
          (Kelvin)             76.08    88.85   142.65   154.71   176.91
                              200.73   208.11   237.40   262.72   300.84
                              322.50   358.98   361.43   385.62   420.63
                              435.71   492.30   519.30   535.79   553.61
                              566.23   653.62   671.05   677.67   719.64
                              740.35   755.77   766.21   814.92   820.30
                              830.56   858.33   873.11   879.80   913.53
                              954.02   959.01   966.09  1011.69  1033.25
                             1052.95  1053.00  1079.80  1110.47  1117.66
                             1151.89  1177.73  1199.70  1200.30  1213.30
                             1240.61  1242.65  1252.30  1276.35  1325.10
                             1329.61  1335.42  1363.64  1367.70  1396.04
                             1463.74  1496.89  1496.93  1502.99  1517.06
                             1537.70  1549.13  1581.92  1626.82  1641.12
                             1709.90  1720.36  1754.58  1804.00  1819.47
                             1850.55  1887.94  1934.17  1943.88  1957.77
                             1964.80  1982.29  2000.62  2009.25  2013.21
                             2050.47  2084.02  2085.09  2086.64  2097.42
                             2122.29  2137.70  2171.12  2210.56  2221.84
                             2258.45  2272.15  2307.23  2315.97  2344.37
                             2374.17  4359.17  4360.39  4455.38  4457.66
                             4505.84  4507.89  4583.43  4602.39  4618.10
                             4622.71  4629.82  4636.07  4671.30  4681.70

 Zero-point correction=                           0.300801 (Hartree/Particle)
 Thermal correction to Energy=                    0.324629
 Thermal correction to Enthalpy=                  0.325573
 Thermal correction to Gibbs Free Energy=         0.242255
 Sum of electronic and zero-point Energies=          -2547.742252
 Sum of electronic and thermal Energies=             -2547.718424
 Sum of electronic and thermal Enthalpies=           -2547.717480
 Sum of electronic and thermal Free Energies=        -2547.800798

                     E (Thermal)             CV                S
                      KCal/Mol        Cal/Mol-Kelvin    Cal/Mol-Kelvin
 Total                  203.708             91.492            175.356
 Electronic               0.000              0.000              0.000
 Translational            0.889              2.981             44.093
 Rotational               0.889              2.981             37.085
 Vibrational            201.930             85.530             94.178
 Vibration     1          0.593              1.987              9.837
 Vibration     2          0.593              1.986              6.967
 Vibration     3          0.594              1.983              5.546
 Vibration     4          0.594              1.982              5.483
 Vibration     5          0.594              1.982              5.356
 Vibration     6          0.596              1.976              4.707
 Vibration     7          0.597              1.973              4.400
 Vibration     8          0.604              1.950              3.471
 Vibration     9          0.606              1.943              3.313
 Vibration    10          0.610              1.930              3.053
 Vibration    11          0.615              1.914              2.811
 Vibration    12          0.616              1.908              2.742
 Vibration    13          0.623              1.885              2.492
 Vibration    14          0.630              1.863              2.302
 Vibration    15          0.642              1.827              2.052
 Vibration    16          0.649              1.804              1.925
 Vibration    17          0.662              1.764              1.734
 Vibration    18          0.663              1.761              1.722
 Vibration    19          0.673              1.732              1.609
 Vibration    20          0.688              1.688              1.460
 Vibration    21          0.694              1.668              1.401
 Vibration    22          0.721              1.591              1.202
 Vibration    23          0.735              1.553              1.118
 Vibration    24          0.744              1.529              1.070
 Vibration    25          0.754              1.503              1.020
 Vibration    26          0.761              1.484              0.987
 Vibration    27          0.813              1.351              0.783
 Vibration    28          0.824              1.325              0.748
 Vibration    29          0.828              1.314              0.735
 Vibration    30          0.856              1.250              0.658
 Vibration    31          0.870              1.218              0.623
 Vibration    32          0.880              1.194              0.598
 Vibration    33          0.888              1.178              0.582
 Vibration    34          0.922              1.104              0.511
 Vibration    35          0.926              1.096              0.504
 Vibration    36          0.934              1.080              0.490
 Vibration    37          0.954              1.039              0.456
 Vibration    38          0.966              1.017              0.438
 Vibration    39          0.971              1.008              0.430

                           ! Non-Optimized Parameters !
 Normal termination of Gaussian 16 at Sat Jul 10 11:04:19 2021.
